9
Energy: -403370.43 kJ/mol
C -0.01439462 1.41573977 0.01004363
O 0.03321681 -0.00437539 0.00230553
C 1.40454898 1.94136581 -0.00067443
H -0.56231527 1.78107578 -0.87265239
H -0.54548972 1.77192949 0.90665420
H -0.86411132 -0.35316026 0.00876926
H 1.94953215 1.58799269 0.88437443
H 1.93261189 1.59727684 -0.89953451
H 1.40192928 3.03835667 0.00505850
